<?xml version="1.0"?>
<VTKFile type="UnstructuredGrid" version="0.1" byte_order="LittleEndian">
  <UnstructuredGrid>
    <Piece NumberOfPoints="16" NumberOfCells="9">
      <Points>
        <DataArray type="Float64" NumberOfComponents="3" format="ascii">
          0.00000000e+00 8.00000012e-01 0.00000000e+00 
0.00000000e+00 7.46666670e-01 0.00000000e+00 
0.00000000e+00 6.93333328e-01 0.00000000e+00 
0.00000000e+00 6.39999986e-01 0.00000000e+00 
4.09582481e-02 8.00232768e-01 0.00000000e+00 
4.09558974e-02 7.47007728e-01 0.00000000e+00 
4.09535505e-02 6.93782687e-01 0.00000000e+00 
4.09511998e-02 6.40557647e-01 0.00000000e+00 
8.19111764e-02 8.00930500e-01 0.00000000e+00 
8.19082558e-02 7.47658730e-01 0.00000000e+00 
8.19053277e-02 6.94387019e-01 0.00000000e+00 
8.19023997e-02 6.41115248e-01 0.00000000e+00 
1.22853607e-01 8.02091122e-01 0.00000000e+00 
1.22853607e-01 7.48618364e-01 0.00000000e+00 
1.22853607e-01 6.95145667e-01 0.00000000e+00 
1.22853607e-01 6.41672909e-01 0.00000000e+00 

        </DataArray>
      </Points>
      <Cells>
        <DataArray type="Int32" Name="connectivity" format="ascii">
0 1 5 4
4 5 9 8
8 9 13 12
1 2 6 5
5 6 10 9
9 10 14 13
2 3 7 6
6 7 11 10
10 11 15 14

        </DataArray>
        <DataArray type="Int32" Name="offsets" format="ascii">
4 8 12 16 20 24 28 32 36 
        </DataArray>
        <DataArray type="UInt8" Name="types" format="ascii">
9 9 9 9 9 9 9 9 9 
        </DataArray>
      </Cells>
      <PointData>
        <DataArray type="Float64" Name="u">
          0.00000000e+00 4.92840599e-02 9.49732198e-02 1.37149976e-01 0.00000000e+00 4.91591801e-02 9.47909807e-02 1.36912960e-01 0.00000000e+00 4.92275736e-02 9.48982181e-02 1.37060764e-01 0.00000000e+00 4.94133886e-02 9.52652367e-02 1.37582625e-01 
        </DataArray>
      </PointData>
    </Piece>
    <Piece NumberOfPoints="16" NumberOfCells="9">
      <Points>
        <DataArray type="Float64" NumberOfComponents="3" format="ascii">
          1.22853607e-01 8.02091122e-01 0.00000000e+00 
1.22853607e-01 7.48618364e-01 0.00000000e+00 
1.22853607e-01 6.95145667e-01 0.00000000e+00 
1.22853607e-01 6.41672909e-01 0.00000000e+00 
1.63780436e-01 8.03711414e-01 0.00000000e+00 
1.63773060e-01 7.50251472e-01 0.00000000e+00 
1.63765684e-01 6.96791530e-01 0.00000000e+00 
1.63758323e-01 6.43331647e-01 0.00000000e+00 
2.04686716e-01 8.05786788e-01 0.00000000e+00 
2.04678819e-01 7.52187967e-01 0.00000000e+00 
2.04670921e-01 6.98589146e-01 0.00000000e+00 
2.04663023e-01 6.44990385e-01 0.00000000e+00 
2.45567739e-01 8.08311343e-01 0.00000000e+00 
2.45567739e-01 7.54423916e-01 0.00000000e+00 
2.45567739e-01 7.00536489e-01 0.00000000e+00 
2.45567739e-01 6.46649063e-01 0.00000000e+00 

        </DataArray>
      </Points>
      <Cells>
        <DataArray type="Int32" Name="connectivity" format="ascii">
0 1 5 4
4 5 9 8
8 9 13 12
1 2 6 5
5 6 10 9
9 10 14 13
2 3 7 6
6 7 11 10
10 11 15 14

        </DataArray>
        <DataArray type="Int32" Name="offsets" format="ascii">
4 8 12 16 20 24 28 32 36 
        </DataArray>
        <DataArray type="UInt8" Name="types" format="ascii">
9 9 9 9 9 9 9 9 9 
        </DataArray>
      </Cells>
      <PointData>
        <DataArray type="Float64" Name="u">
          0.00000000e+00 4.94133886e-02 9.52652367e-02 1.37582625e-01 0.00000000e+00 4.94278063e-02 9.52972423e-02 1.37644105e-01 0.00000000e+00 4.95808704e-02 9.55944258e-02 1.38075903e-01 0.00000000e+00 4.98757190e-02 9.61547118e-02 1.38875302e-01 
        </DataArray>
      </PointData>
    </Piece>
    <Piece NumberOfPoints="16" NumberOfCells="9">
      <Points>
        <DataArray type="Float64" NumberOfComponents="3" format="ascii">
          2.45567739e-01 8.08311343e-01 0.00000000e+00 
2.45567739e-01 7.54423916e-01 0.00000000e+00 
2.45567739e-01 7.00536489e-01 0.00000000e+00 
2.45567739e-01 6.46649063e-01 0.00000000e+00 
2.86419034e-01 8.11278284e-01 0.00000000e+00 
2.86407351e-01 7.57307947e-01 0.00000000e+00 
2.86395639e-01 7.03337669e-01 0.00000000e+00 
2.86383957e-01 6.49367332e-01 0.00000000e+00 
3.27236503e-01 8.14679086e-01 0.00000000e+00 
3.27224374e-01 7.60481238e-01 0.00000000e+00 
3.27212274e-01 7.06283391e-01 0.00000000e+00 
3.27200145e-01 6.52085602e-01 0.00000000e+00 
3.68016362e-01 8.18504751e-01 0.00000000e+00 
3.68016362e-01 7.63937771e-01 0.00000000e+00 
3.68016362e-01 7.09370792e-01 0.00000000e+00 
3.68016362e-01 6.54803813e-01 0.00000000e+00 

        </DataArray>
      </Points>
      <Cells>
        <DataArray type="Int32" Name="connectivity" format="ascii">
0 1 5 4
4 5 9 8
8 9 13 12
1 2 6 5
5 6 10 9
9 10 14 13
2 3 7 6
6 7 11 10
10 11 15 14

        </DataArray>
        <DataArray type="Int32" Name="offsets" format="ascii">
4 8 12 16 20 24 28 32 36 
        </DataArray>
        <DataArray type="UInt8" Name="types" format="ascii">
9 9 9 9 9 9 9 9 9 
        </DataArray>
      </Cells>
      <PointData>
        <DataArray type="Float64" Name="u">
          0.00000000e+00 4.98757190e-02 9.61547118e-02 1.38875302e-01 0.00000000e+00 4.99881024e-02 9.63852675e-02 1.39225232e-01 0.00000000e+00 5.02386155e-02 9.68702000e-02 1.39929964e-01 0.00000000e+00 5.06186261e-02 9.76027779e-02 1.40982468e-01 
        </DataArray>
      </PointData>
    </Piece>
    <Piece NumberOfPoints="16" NumberOfCells="9">
      <Points>
        <DataArray type="Float64" NumberOfComponents="3" format="ascii">
          3.68016362e-01 8.18504751e-01 0.00000000e+00 
3.68016362e-01 7.63937771e-01 0.00000000e+00 
3.68016362e-01 7.09370792e-01 0.00000000e+00 
3.68016362e-01 6.54803813e-01 0.00000000e+00 
4.08755243e-01 8.22744668e-01 0.00000000e+00 
4.08740312e-01 7.68001378e-01 0.00000000e+00 
4.08725381e-01 7.13258147e-01 0.00000000e+00 
4.08710450e-01 6.58514917e-01 0.00000000e+00 
4.49450195e-01 8.27387691e-01 0.00000000e+00 
4.49434966e-01 7.72333801e-01 0.00000000e+00 
4.49419767e-01 7.17279851e-01 0.00000000e+00 
4.49404567e-01 6.62225962e-01 0.00000000e+00 
4.90098655e-01 8.32421303e-01 0.00000000e+00 
4.90098655e-01 7.76926517e-01 0.00000000e+00 
4.90098655e-01 7.21431792e-01 0.00000000e+00 
4.90098655e-01 6.65937006e-01 0.00000000e+00 

        </DataArray>
      </Points>
      <Cells>
        <DataArray type="Int32" Name="connectivity" format="ascii">
0 1 5 4
4 5 9 8
8 9 13 12
1 2 6 5
5 6 10 9
9 10 14 13
2 3 7 6
6 7 11 10
10 11 15 14

        </DataArray>
        <DataArray type="Int32" Name="offsets" format="ascii">
4 8 12 16 20 24 28 32 36 
        </DataArray>
        <DataArray type="UInt8" Name="types" format="ascii">
9 9 9 9 9 9 9 9 9 
        </DataArray>
      </Cells>
      <PointData>
        <DataArray type="Float64" Name="u">
          0.00000000e+00 5.06186261e-02 9.76027779e-02 1.40982468e-01 0.00000000e+00 5.08330584e-02 9.80245992e-02 1.41608286e-01 0.00000000e+00 5.11695696e-02 9.86807427e-02 1.42563447e-01 0.00000000e+00 5.16321391e-02 9.95677268e-02 1.43840462e-01 
        </DataArray>
      </PointData>
    </Piece>
    <Piece NumberOfPoints="16" NumberOfCells="9">
      <Points>
        <DataArray type="Float64" NumberOfComponents="3" format="ascii">
          4.90098655e-01 8.32421303e-01 0.00000000e+00 
4.90098655e-01 7.76926517e-01 0.00000000e+00 
4.90098655e-01 7.21431792e-01 0.00000000e+00 
4.90098655e-01 6.65937006e-01 0.00000000e+00 
5.30698597e-01 8.37832510e-01 0.00000000e+00 
5.30681789e-01 7.82072663e-01 0.00000000e+00 
5.30664921e-01 7.26312816e-01 0.00000000e+00 
5.30648112e-01 6.70552909e-01 0.00000000e+00 
5.71248412e-01 8.43607247e-01 0.00000000e+00 
5.71231484e-01 7.87461102e-01 0.00000000e+00 
5.71214557e-01 7.31314957e-01 0.00000000e+00 
5.71197569e-01 6.75168812e-01 0.00000000e+00 
6.11747026e-01 8.49730909e-01 0.00000000e+00 
6.11747026e-01 7.93082178e-01 0.00000000e+00 
6.11747026e-01 7.36433446e-01 0.00000000e+00 
6.11747026e-01 6.79784715e-01 0.00000000e+00 

        </DataArray>
      </Points>
      <Cells>
        <DataArray type="Int32" Name="connectivity" format="ascii">
0 1 5 4
4 5 9 8
8 9 13 12
1 2 6 5
5 6 10 9
9 10 14 13
2 3 7 6
6 7 11 10
10 11 15 14

        </DataArray>
        <DataArray type="Int32" Name="offsets" format="ascii">
4 8 12 16 20 24 28 32 36 
        </DataArray>
        <DataArray type="UInt8" Name="types" format="ascii">
9 9 9 9 9 9 9 9 9 
        </DataArray>
      </Cells>
      <PointData>
        <DataArray type="Float64" Name="u">
          0.00000000e+00 5.16321391e-02 9.95677268e-02 1.43840462e-01 0.00000000e+00 5.19321108e-02 1.00162788e-01 1.44719597e-01 0.00000000e+00 5.23488386e-02 1.00971946e-01 1.45897463e-01 0.00000000e+00 5.28722578e-02 1.01985523e-01 1.47362753e-01 
        </DataArray>
      </PointData>
    </Piece>
    <Piece NumberOfPoints="16" NumberOfCells="9">
      <Points>
        <DataArray type="Float64" NumberOfComponents="3" format="ascii">
          6.11747026e-01 8.49730909e-01 0.00000000e+00 
6.11747026e-01 7.93082178e-01 0.00000000e+00 
6.11747026e-01 7.36433446e-01 0.00000000e+00 
6.11747026e-01 6.79784715e-01 0.00000000e+00 
6.52193904e-01 8.56187999e-01 0.00000000e+00 
6.52176619e-01 7.99192071e-01 0.00000000e+00 
6.52159333e-01 7.42196083e-01 0.00000000e+00 
6.52142048e-01 6.85200095e-01 0.00000000e+00 
6.92588747e-01 8.62962782e-01 0.00000000e+00 
6.92571521e-01 8.05513680e-01 0.00000000e+00 
6.92554235e-01 7.48064578e-01 0.00000000e+00 
6.92537010e-01 6.90615416e-01 0.00000000e+00 
7.32932031e-01 8.70038509e-01 0.00000000e+00 
7.32932031e-01 8.12035918e-01 0.00000000e+00 
7.32932031e-01 7.54033387e-01 0.00000000e+00 
7.32932031e-01 6.96030796e-01 0.00000000e+00 

        </DataArray>
      </Points>
      <Cells>
        <DataArray type="Int32" Name="connectivity" format="ascii">
0 1 5 4
4 5 9 8
8 9 13 12
1 2 6 5
5 6 10 9
9 10 14 13
2 3 7 6
6 7 11 10
10 11 15 14

        </DataArray>
        <DataArray type="Int32" Name="offsets" format="ascii">
4 8 12 16 20 24 28 32 36 
        </DataArray>
        <DataArray type="UInt8" Name="types" format="ascii">
9 9 9 9 9 9 9 9 9 
        </DataArray>
      </Cells>
      <PointData>
        <DataArray type="Float64" Name="u">
          0.00000000e+00 5.28722578e-02 1.01985523e-01 1.47362753e-01 0.00000000e+00 5.32561624e-02 1.02737986e-01 1.48469342e-01 0.00000000e+00 5.37375550e-02 1.03676206e-01 1.49836738e-01 0.00000000e+00 5.43147692e-02 1.04792363e-01 1.51453093e-01 
        </DataArray>
      </PointData>
    </Piece>
    <Piece NumberOfPoints="16" NumberOfCells="9">
      <Points>
        <DataArray type="Float64" NumberOfComponents="3" format="ascii">
          7.32932031e-01 8.70038509e-01 0.00000000e+00 
7.32932031e-01 8.12035918e-01 0.00000000e+00 
7.32932031e-01 7.54033387e-01 0.00000000e+00 
7.32932031e-01 6.96030796e-01 0.00000000e+00 
7.73224354e-01 8.77398312e-01 0.00000000e+00 
7.73208022e-01 8.18974614e-01 0.00000000e+00 
7.73191690e-01 7.60550916e-01 0.00000000e+00 
7.73175299e-01 7.02127218e-01 0.00000000e+00 
8.13467145e-01 8.85024726e-01 0.00000000e+00 
8.13450992e-01 8.26091051e-01 0.00000000e+00 
8.13434780e-01 7.67157316e-01 0.00000000e+00 
8.13418627e-01 7.08223581e-01 0.00000000e+00 
8.53661954e-01 8.92899990e-01 0.00000000e+00 
8.53661954e-01 8.33373368e-01 0.00000000e+00 
8.53661954e-01 7.73846686e-01 0.00000000e+00 
8.53661954e-01 7.14320004e-01 0.00000000e+00 

        </DataArray>
      </Points>
      <Cells>
        <DataArray type="Int32" Name="connectivity" format="ascii">
0 1 5 4
4 5 9 8
8 9 13 12
1 2 6 5
5 6 10 9
9 10 14 13
2 3 7 6
6 7 11 10
10 11 15 14

        </DataArray>
        <DataArray type="Int32" Name="offsets" format="ascii">
4 8 12 16 20 24 28 32 36 
        </DataArray>
        <DataArray type="UInt8" Name="types" format="ascii">
9 9 9 9 9 9 9 9 9 
        </DataArray>
      </Cells>
      <PointData>
        <DataArray type="Float64" Name="u">
          0.00000000e+00 5.43147692e-02 1.04792363e-01 1.51453093e-01 0.00000000e+00 5.47666259e-02 1.05679437e-01 1.52755666e-01 0.00000000e+00 5.53018226e-02 1.06722740e-01 1.54277404e-01 0.00000000e+00 5.59152948e-02 1.07912528e-01 1.56004487e-01 
        </DataArray>
      </PointData>
    </Piece>
    <Piece NumberOfPoints="16" NumberOfCells="9">
      <Points>
        <DataArray type="Float64" NumberOfComponents="3" format="ascii">
          8.53661954e-01 8.92899990e-01 0.00000000e+00 
8.53661954e-01 8.33373368e-01 0.00000000e+00 
8.53661954e-01 7.73846686e-01 0.00000000e+00 
8.53661954e-01 7.14320004e-01 0.00000000e+00 
8.93810928e-01 9.01006043e-01 0.00000000e+00 
8.93796742e-01 8.40993941e-01 0.00000000e+00 
8.93782556e-01 7.80981779e-01 0.00000000e+00 
8.93768370e-01 7.20969677e-01 0.00000000e+00 
9.33916390e-01 9.09324288e-01 0.00000000e+00 
9.33902562e-01 8.48756015e-01 0.00000000e+00 
9.33888674e-01 7.88187683e-01 0.00000000e+00 
9.33874846e-01 7.27619350e-01 0.00000000e+00 
9.73981261e-01 9.17836308e-01 0.00000000e+00 
9.73981261e-01 8.56647193e-01 0.00000000e+00 
9.73981261e-01 7.95458138e-01 0.00000000e+00 
9.73981261e-01 7.34269023e-01 0.00000000e+00 

        </DataArray>
      </Points>
      <Cells>
        <DataArray type="Int32" Name="connectivity" format="ascii">
0 1 5 4
4 5 9 8
8 9 13 12
1 2 6 5
5 6 10 9
9 10 14 13
2 3 7 6
6 7 11 10
10 11 15 14

        </DataArray>
        <DataArray type="Int32" Name="offsets" format="ascii">
4 8 12 16 20 24 28 32 36 
        </DataArray>
        <DataArray type="UInt8" Name="types" format="ascii">
9 9 9 9 9 9 9 9 9 
        </DataArray>
      </Cells>
      <PointData>
        <DataArray type="Float64" Name="u">
          0.00000000e+00 5.59152948e-02 1.07912528e-01 1.56004487e-01 0.00000000e+00 5.64243030e-02 1.08911401e-01 1.57469993e-01 0.00000000e+00 5.70004297e-02 1.10034627e-01 1.59109433e-01 0.00000000e+00 5.76353104e-02 1.11270488e-01 1.60907473e-01 
        </DataArray>
      </PointData>
    </Piece>
    <Piece NumberOfPoints="16" NumberOfCells="9">
      <Points>
        <DataArray type="Float64" NumberOfComponents="3" format="ascii">
          9.73981261e-01 9.17836308e-01 0.00000000e+00 
9.73981261e-01 8.56647193e-01 0.00000000e+00 
9.73981261e-01 7.95458138e-01 0.00000000e+00 
9.73981261e-01 7.34269023e-01 0.00000000e+00 
1.01400864e+00 9.26523030e-01 0.00000000e+00 
1.01399767e+00 8.64794672e-01 0.00000000e+00 
1.01398671e+00 8.03066313e-01 0.00000000e+00 
1.01397574e+00 7.41337895e-01 0.00000000e+00 
1.05400181e+00 9.35365558e-01 0.00000000e+00 
1.05399120e+00 8.73045981e-01 0.00000000e+00 
1.05398071e+00 8.10726404e-01 0.00000000e+00 
1.05397010e+00 7.48406827e-01 0.00000000e+00 
1.09396458e+00 9.44344580e-01 0.00000000e+00 
1.09396458e+00 8.81388307e-01 0.00000000e+00 
1.09396458e+00 8.18431973e-01 0.00000000e+00 
1.09396458e+00 7.55475700e-01 0.00000000e+00 

        </DataArray>
      </Points>
      <Cells>
        <DataArray type="Int32" Name="connectivity" format="ascii">
0 1 5 4
4 5 9 8
8 9 13 12
1 2 6 5
5 6 10 9
9 10 14 13
2 3 7 6
6 7 11 10
10 11 15 14

        </DataArray>
        <DataArray type="Int32" Name="offsets" format="ascii">
4 8 12 16 20 24 28 32 36 
        </DataArray>
        <DataArray type="UInt8" Name="types" format="ascii">
9 9 9 9 9 9 9 9 9 
        </DataArray>
      </Cells>
      <PointData>
        <DataArray type="Float64" Name="u">
          0.00000000e+00 5.76353104e-02 1.11270488e-01 1.60907473e-01 0.00000000e+00 5.81918316e-02 1.12358864e-01 1.62502180e-01 0.00000000e+00 5.87943734e-02 1.13536348e-01 1.64222605e-01 0.00000000e+00 5.94402664e-02 1.14792766e-01 1.66053284e-01 
        </DataArray>
      </PointData>
    </Piece>
    <Piece NumberOfPoints="16" NumberOfCells="9">
      <Points>
        <DataArray type="Float64" NumberOfComponents="3" format="ascii">
          1.09396458e+00 9.44344580e-01 0.00000000e+00 
1.09396458e+00 8.81388307e-01 0.00000000e+00 
1.09396458e+00 8.18431973e-01 0.00000000e+00 
1.09396458e+00 7.55475700e-01 0.00000000e+00 
1.13390076e+00 9.53440964e-01 0.00000000e+00 
1.13389385e+00 8.89902592e-01 0.00000000e+00 
1.13388681e+00 8.26364219e-01 0.00000000e+00 
1.13387978e+00 7.62825847e-01 0.00000000e+00 
1.17381465e+00 9.62635159e-01 0.00000000e+00 
1.17380810e+00 8.98482084e-01 0.00000000e+00 
1.17380166e+00 8.34329069e-01 0.00000000e+00 
1.17379510e+00 7.70175993e-01 0.00000000e+00 
1.21371043e+00 9.71907735e-01 0.00000000e+00 
1.21371043e+00 9.07113850e-01 0.00000000e+00 
1.21371043e+00 8.42320025e-01 0.00000000e+00 
1.21371043e+00 7.77526200e-01 0.00000000e+00 

        </DataArray>
      </Points>
      <Cells>
        <DataArray type="Int32" Name="connectivity" format="ascii">
0 1 5 4
4 5 9 8
8 9 13 12
1 2 6 5
5 6 10 9
9 10 14 13
2 3 7 6
6 7 11 10
10 11 15 14

        </DataArray>
        <DataArray type="Int32" Name="offsets" format="ascii">
4 8 12 16 20 24 28 32 36 
        </DataArray>
        <DataArray type="UInt8" Name="types" format="ascii">
9 9 9 9 9 9 9 9 9 
        </DataArray>
      </Cells>
      <PointData>
        <DataArray type="Float64" Name="u">
          0.00000000e+00 5.94402664e-02 1.14792766e-01 1.66053284e-01 0.00000000e+00 6.00284015e-02 1.15945791e-01 1.67742465e-01 0.00000000e+00 6.06469397e-02 1.17153760e-01 1.69508362e-01 0.00000000e+00 6.12868814e-02 1.18403971e-01 1.71334074e-01 
        </DataArray>
      </PointData>
    </Piece>
    <Piece NumberOfPoints="16" NumberOfCells="9">
      <Points>
        <DataArray type="Float64" NumberOfComponents="3" format="ascii">
          1.21371043e+00 9.71907735e-01 0.00000000e+00 
1.21371043e+00 9.07113850e-01 0.00000000e+00 
1.21371043e+00 8.42320025e-01 0.00000000e+00 
1.21371043e+00 7.77526200e-01 0.00000000e+00 
1.25359237e+00 9.81239080e-01 0.00000000e+00 
1.25358987e+00 9.15831864e-01 0.00000000e+00 
1.25358725e+00 8.50424647e-01 0.00000000e+00 
1.25358474e+00 7.85017431e-01 0.00000000e+00 
1.29346514e+00 9.90609765e-01 0.00000000e+00 
1.29346311e+00 9.24576044e-01 0.00000000e+00 
1.29346108e+00 8.58542383e-01 0.00000000e+00 
1.29345906e+00 7.92508721e-01 0.00000000e+00 
1.33333337e+00 1.00000000e+00 0.00000000e+00 
1.33333337e+00 9.33333337e-01 0.00000000e+00 
1.33333337e+00 8.66666675e-01 0.00000000e+00 
1.33333337e+00 8.00000012e-01 0.00000000e+00 

        </DataArray>
      </Points>
      <Cells>
        <DataArray type="Int32" Name="connectivity" format="ascii">
0 1 5 4
4 5 9 8
8 9 13 12
1 2 6 5
5 6 10 9
9 10 14 13
2 3 7 6
6 7 11 10
10 11 15 14

        </DataArray>
        <DataArray type="Int32" Name="offsets" format="ascii">
4 8 12 16 20 24 28 32 36 
        </DataArray>
        <DataArray type="UInt8" Name="types" format="ascii">
9 9 9 9 9 9 9 9 9 
        </DataArray>
      </Cells>
      <PointData>
        <DataArray type="Float64" Name="u">
          0.00000000e+00 6.12868814e-02 1.18403971e-01 1.71334074e-01 0.00000000e+00 6.18985368e-02 1.19599902e-01 1.73084614e-01 0.00000000e+00 6.25194639e-02 1.20814365e-01 1.74861352e-01 0.00000000e+00 6.31443329e-02 1.22035685e-01 1.76647620e-01 
        </DataArray>
      </PointData>
    </Piece>
    <Piece NumberOfPoints="16" NumberOfCells="9">
      <Points>
        <DataArray type="Float64" NumberOfComponents="3" format="ascii">
          1.33333337e+00 1.00000000e+00 0.00000000e+00 
1.33333337e+00 9.33333337e-01 0.00000000e+00 
1.33333337e+00 8.66666675e-01 0.00000000e+00 
1.33333337e+00 8.00000012e-01 0.00000000e+00 
1.37320149e+00 1.00939023e+00 0.00000000e+00 
1.37320364e+00 9.42090631e-01 0.00000000e+00 
1.37320566e+00 8.74790967e-01 0.00000000e+00 
1.37320769e+00 8.07491302e-01 0.00000000e+00 
1.41307437e+00 1.01876092e+00 0.00000000e+00 
1.41307688e+00 9.50834811e-01 0.00000000e+00 
1.41307938e+00 8.82908702e-01 0.00000000e+00 
1.41308200e+00 8.14982533e-01 0.00000000e+00 
1.45295632e+00 1.02809227e+00 0.00000000e+00 
1.45295632e+00 9.59552824e-01 0.00000000e+00 
1.45295632e+00 8.91013324e-01 0.00000000e+00 
1.45295632e+00 8.22473824e-01 0.00000000e+00 

        </DataArray>
      </Points>
      <Cells>
        <DataArray type="Int32" Name="connectivity" format="ascii">
0 1 5 4
4 5 9 8
8 9 13 12
1 2 6 5
5 6 10 9
9 10 14 13
2 3 7 6
6 7 11 10
10 11 15 14

        </DataArray>
        <DataArray type="Int32" Name="offsets" format="ascii">
4 8 12 16 20 24 28 32 36 
        </DataArray>
        <DataArray type="UInt8" Name="types" format="ascii">
9 9 9 9 9 9 9 9 9 
        </DataArray>
      </Cells>
      <PointData>
        <DataArray type="Float64" Name="u">
          0.00000000e+00 6.31443329e-02 1.22035685e-01 1.76647620e-01 0.00000000e+00 6.37663386e-02 1.23251783e-01 1.78426542e-01 0.00000000e+00 6.43788754e-02 1.24450508e-01 1.80181276e-01 0.00000000e+00 6.49765416e-02 1.25620309e-01 1.81895182e-01 
        </DataArray>
      </PointData>
    </Piece>
    <Piece NumberOfPoints="16" NumberOfCells="9">
      <Points>
        <DataArray type="Float64" NumberOfComponents="3" format="ascii">
          1.45295632e+00 1.02809227e+00 0.00000000e+00 
1.45295632e+00 9.59552824e-01 0.00000000e+00 
1.45295632e+00 8.91013324e-01 0.00000000e+00 
1.45295632e+00 8.22473824e-01 0.00000000e+00 
1.49285197e+00 1.03736484e+00 0.00000000e+00 
1.49285853e+00 9.68184590e-01 0.00000000e+00 
1.49286509e+00 8.99004281e-01 0.00000000e+00 
1.49287164e+00 8.29823971e-01 0.00000000e+00 
1.53276587e+00 1.04655910e+00 0.00000000e+00 
1.53277290e+00 9.76764083e-01 0.00000000e+00 
1.53277981e+00 9.06969130e-01 0.00000000e+00 
1.53278685e+00 8.37174177e-01 0.00000000e+00 
1.57270217e+00 1.05565536e+00 0.00000000e+00 
1.57270217e+00 9.85278368e-01 0.00000000e+00 
1.57270217e+00 9.14901376e-01 0.00000000e+00 
1.57270217e+00 8.44524324e-01 0.00000000e+00 

        </DataArray>
      </Points>
      <Cells>
        <DataArray type="Int32" Name="connectivity" format="ascii">
0 1 5 4
4 5 9 8
8 9 13 12
1 2 6 5
5 6 10 9
9 10 14 13
2 3 7 6
6 7 11 10
10 11 15 14

        </DataArray>
        <DataArray type="Int32" Name="offsets" format="ascii">
4 8 12 16 20 24 28 32 36 
        </DataArray>
        <DataArray type="UInt8" Name="types" format="ascii">
9 9 9 9 9 9 9 9 9 
        </DataArray>
      </Cells>
      <PointData>
        <DataArray type="Float64" Name="u">
          0.00000000e+00 6.49765416e-02 1.25620309e-01 1.81895182e-01 0.00000000e+00 6.55971521e-02 1.26834424e-01 1.83670521e-01 0.00000000e+00 6.61912064e-02 1.27996381e-01 1.85371978e-01 0.00000000e+00 6.67494846e-02 1.29093450e-01 1.86982748e-01 
        </DataArray>
      </PointData>
    </Piece>
    <Piece NumberOfPoints="16" NumberOfCells="9">
      <Points>
        <DataArray type="Float64" NumberOfComponents="3" format="ascii">
          1.57270217e+00 1.05565536e+00 0.00000000e+00 
1.57270217e+00 9.85278368e-01 0.00000000e+00 
1.57270217e+00 9.14901376e-01 0.00000000e+00 
1.57270217e+00 8.44524324e-01 0.00000000e+00 
1.61266494e+00 1.06463444e+00 0.00000000e+00 
1.61267543e+00 9.93620694e-01 0.00000000e+00 
1.61268604e+00 9.22606945e-01 0.00000000e+00 
1.61269653e+00 8.51593196e-01 0.00000000e+00 
1.65265810e+00 1.07347703e+00 0.00000000e+00 
1.65266907e+00 1.00187206e+00 0.00000000e+00 
1.65268004e+00 9.30267036e-01 0.00000000e+00 
1.65269101e+00 8.58662069e-01 0.00000000e+00 
1.69268548e+00 1.08216369e+00 0.00000000e+00 
1.69268548e+00 1.01001942e+00 0.00000000e+00 
1.69268548e+00 9.37875211e-01 0.00000000e+00 
1.69268548e+00 8.65730941e-01 0.00000000e+00 

        </DataArray>
      </Points>
      <Cells>
        <DataArray type="Int32" Name="connectivity" format="ascii">
0 1 5 4
4 5 9 8
8 9 13 12
1 2 6 5
5 6 10 9
9 10 14 13
2 3 7 6
6 7 11 10
10 11 15 14

        </DataArray>
        <DataArray type="Int32" Name="offsets" format="ascii">
4 8 12 16 20 24 28 32 36 
        </DataArray>
        <DataArray type="UInt8" Name="types" format="ascii">
9 9 9 9 9 9 9 9 9 
        </DataArray>
      </Cells>
      <PointData>
        <DataArray type="Float64" Name="u">
          0.00000000e+00 6.67494846e-02 1.29093450e-01 1.86982748e-01 0.00000000e+00 6.73611409e-02 1.30285860e-01 1.88724058e-01 0.00000000e+00 6.79246275e-02 1.31390284e-01 1.90342268e-01 0.00000000e+00 6.84375579e-02 1.32396701e-01 1.91822039e-01 
        </DataArray>
      </PointData>
    </Piece>
    <Piece NumberOfPoints="16" NumberOfCells="9">
      <Points>
        <DataArray type="Float64" NumberOfComponents="3" format="ascii">
          1.69268548e+00 1.08216369e+00 0.00000000e+00 
1.69268548e+00 1.01001942e+00 0.00000000e+00 
1.69268548e+00 9.37875211e-01 0.00000000e+00 
1.69268548e+00 8.65730941e-01 0.00000000e+00 
1.73275030e+00 1.09067571e+00 0.00000000e+00 
1.73276412e+00 1.01791072e+00 0.00000000e+00 
1.73277807e+00 9.45145667e-01 0.00000000e+00 
1.73279190e+00 8.72380614e-01 0.00000000e+00 
1.77285576e+00 1.09899402e+00 0.00000000e+00 
1.77286994e+00 1.02567279e+00 0.00000000e+00 
1.77288413e+00 9.52351511e-01 0.00000000e+00 
1.77289832e+00 8.79030287e-01 0.00000000e+00 
1.81300473e+00 1.10710001e+00 0.00000000e+00 
1.81300473e+00 1.03329337e+00 0.00000000e+00 
1.81300473e+00 9.59486663e-01 0.00000000e+00 
1.81300473e+00 8.85680020e-01 0.00000000e+00 

        </DataArray>
      </Points>
      <Cells>
        <DataArray type="Int32" Name="connectivity" format="ascii">
0 1 5 4
4 5 9 8
8 9 13 12
1 2 6 5
5 6 10 9
9 10 14 13
2 3 7 6
6 7 11 10
10 11 15 14

        </DataArray>
        <DataArray type="Int32" Name="offsets" format="ascii">
4 8 12 16 20 24 28 32 36 
        </DataArray>
        <DataArray type="UInt8" Name="types" format="ascii">
9 9 9 9 9 9 9 9 9 
        </DataArray>
      </Cells>
      <PointData>
        <DataArray type="Float64" Name="u">
          0.00000000e+00 6.84375579e-02 1.32396701e-01 1.91822039e-01 0.00000000e+00 6.90256152e-02 1.33545487e-01 1.93498724e-01 0.00000000e+00 6.95510543e-02 1.34573938e-01 1.95005735e-01 0.00000000e+00 7.00055685e-02 1.35470625e-01 1.96327839e-01 
        </DataArray>
      </PointData>
    </Piece>
    <Piece NumberOfPoints="16" NumberOfCells="9">
      <Points>
        <DataArray type="Float64" NumberOfComponents="3" format="ascii">
          1.81300473e+00 1.10710001e+00 0.00000000e+00 
1.81300473e+00 1.03329337e+00 0.00000000e+00 
1.81300473e+00 9.59486663e-01 0.00000000e+00 
1.81300473e+00 8.85680020e-01 0.00000000e+00 
1.85319960e+00 1.11497521e+00 0.00000000e+00 
1.85321569e+00 1.04057562e+00 0.00000000e+00 
1.85323191e+00 9.66176033e-01 0.00000000e+00 
1.85324812e+00 8.91776383e-01 0.00000000e+00 
1.89344227e+00 1.12260175e+00 0.00000000e+00 
1.89345872e+00 1.04769206e+00 0.00000000e+00 
1.89347506e+00 9.72782433e-01 0.00000000e+00 
1.89349139e+00 8.97872806e-01 0.00000000e+00 
1.93373466e+00 1.12996149e+00 0.00000000e+00 
1.93373466e+00 1.05463076e+00 0.00000000e+00 
1.93373466e+00 9.79299963e-01 0.00000000e+00 
1.93373466e+00 9.03969228e-01 0.00000000e+00 

        </DataArray>
      </Points>
      <Cells>
        <DataArray type="Int32" Name="connectivity" format="ascii">
0 1 5 4
4 5 9 8
8 9 13 12
1 2 6 5
5 6 10 9
9 10 14 13
2 3 7 6
6 7 11 10
10 11 15 14

        </DataArray>
        <DataArray type="Int32" Name="offsets" format="ascii">
4 8 12 16 20 24 28 32 36 
        </DataArray>
        <DataArray type="UInt8" Name="types" format="ascii">
9 9 9 9 9 9 9 9 9 
        </DataArray>
      </Cells>
      <PointData>
        <DataArray type="Float64" Name="u">
          0.00000000e+00 7.00055685e-02 1.35470625e-01 1.96327839e-01 0.00000000e+00 7.05634745e-02 1.36557009e-01 1.97911303e-01 0.00000000e+00 7.10401809e-02 1.37490967e-01 1.99280380e-01 0.00000000e+00 7.14308930e-02 1.38262945e-01 2.00421506e-01 
        </DataArray>
      </PointData>
    </Piece>
    <Piece NumberOfPoints="16" NumberOfCells="9">
      <Points>
        <DataArray type="Float64" NumberOfComponents="3" format="ascii">
          1.93373466e+00 1.12996149e+00 0.00000000e+00 
1.93373466e+00 1.05463076e+00 0.00000000e+00 
1.93373466e+00 9.79299963e-01 0.00000000e+00 
1.93373466e+00 9.03969228e-01 0.00000000e+00 
1.97407794e+00 1.13703728e+00 0.00000000e+00 
1.97409523e+00 1.06115305e+00 0.00000000e+00 
1.97411239e+00 9.85268772e-01 0.00000000e+00 
1.97412968e+00 9.09384549e-01 0.00000000e+00 
2.01447272e+00 1.14381194e+00 0.00000000e+00 
2.01449013e+00 1.06747460e+00 0.00000000e+00 
2.01450729e+00 9.91137266e-01 0.00000000e+00 
2.01452470e+00 9.14799929e-01 0.00000000e+00 
2.05491972e+00 1.15026915e+00 0.00000000e+00 
2.05491972e+00 1.07358444e+00 0.00000000e+00 
2.05491972e+00 9.96899903e-01 0.00000000e+00 
2.05491972e+00 9.20215249e-01 0.00000000e+00 

        </DataArray>
      </Points>
      <Cells>
        <DataArray type="Int32" Name="connectivity" format="ascii">
0 1 5 4
4 5 9 8
8 9 13 12
1 2 6 5
5 6 10 9
9 10 14 13
2 3 7 6
6 7 11 10
10 11 15 14

        </DataArray>
        <DataArray type="Int32" Name="offsets" format="ascii">
4 8 12 16 20 24 28 32 36 
        </DataArray>
        <DataArray type="UInt8" Name="types" format="ascii">
9 9 9 9 9 9 9 9 9 
        </DataArray>
      </Cells>
      <PointData>
        <DataArray type="Float64" Name="u">
          0.00000000e+00 7.14308930e-02 1.38262945e-01 2.00421506e-01 0.00000000e+00 7.19479662e-02 1.39267753e-01 2.01883441e-01 0.00000000e+00 7.23673995e-02 1.40090558e-01 2.03089879e-01 0.00000000e+00 7.26877456e-02 1.40723778e-01 2.04029019e-01 
        </DataArray>
      </PointData>
    </Piece>
    <Piece NumberOfPoints="16" NumberOfCells="9">
      <Points>
        <DataArray type="Float64" NumberOfComponents="3" format="ascii">
          2.05491972e+00 1.15026915e+00 0.00000000e+00 
2.05491972e+00 1.07358444e+00 0.00000000e+00 
2.05491972e+00 9.96899903e-01 0.00000000e+00 
2.05491972e+00 9.20215249e-01 0.00000000e+00 
2.09541821e+00 1.15639281e+00 0.00000000e+00 
2.09543514e+00 1.07920563e+00 0.00000000e+00 
2.09545207e+00 1.00201833e+00 0.00000000e+00 
2.09546924e+00 9.24831152e-01 0.00000000e+00 
2.13596821e+00 1.16216743e+00 0.00000000e+00 
2.13598490e+00 1.08459401e+00 0.00000000e+00 
2.13600183e+00 1.00702059e+00 0.00000000e+00 
2.13601851e+00 9.29447055e-01 0.00000000e+00 
2.17656803e+00 1.16757870e+00 0.00000000e+00 
2.17656803e+00 1.08974016e+00 0.00000000e+00 
2.17656803e+00 1.01190162e+00 0.00000000e+00 
2.17656803e+00 9.34062958e-01 0.00000000e+00 

        </DataArray>
      </Points>
      <Cells>