<?xml version="1.0"?>
<VTKFile type="UnstructuredGrid" version="0.1" byte_order="LittleEndian">
  <UnstructuredGrid>
    <Piece NumberOfPoints="16" NumberOfCells="9">
      <Points>
        <DataArray type="Float64" NumberOfComponents="3" format="ascii">
          0.00000000e+00 1.33404166e-01 0.00000000e+00 
0.00000000e+00 1.24510556e-01 0.00000000e+00 
0.00000000e+00 1.15616947e-01 0.00000000e+00 
0.00000000e+00 1.06723338e-01 0.00000000e+00 
1.01772040e-01 1.36171088e-01 0.00000000e+00 
1.01642020e-01 1.28542498e-01 0.00000000e+00 
1.01511993e-01 1.20913900e-01 0.00000000e+00 
1.01381972e-01 1.13285311e-01 0.00000000e+00 
2.03246728e-01 1.44421831e-01 0.00000000e+00 
2.03085795e-01 1.36230320e-01 0.00000000e+00 
2.02924877e-01 1.28038794e-01 0.00000000e+00 
2.02763945e-01 1.19847275e-01 0.00000000e+00 
3.04145932e-01 1.58011556e-01 0.00000000e+00 
3.04145932e-01 1.47477448e-01 0.00000000e+00 
3.04145932e-01 1.36943355e-01 0.00000000e+00 
3.04145932e-01 1.26409248e-01 0.00000000e+00 

        </DataArray>
      </Points>
      <Cells>
        <DataArray type="Int32" Name="connectivity" format="ascii">
0 1 5 4
4 5 9 8
8 9 13 12
1 2 6 5
5 6 10 9
9 10 14 13
2 3 7 6
6 7 11 10
10 11 15 14

        </DataArray>
        <DataArray type="Int32" Name="offsets" format="ascii">
4 8 12 16 20 24 28 32 36 
        </DataArray>
        <DataArray type="UInt8" Name="types" format="ascii">
9 9 9 9 9 9 9 9 9 
        </DataArray>
      </Cells>
      <PointData>
        <DataArray type="Float64" Name="u">
          0.00000000e+00 1.24452898e-03 2.40447387e-03 3.47978862e-03 0.00000000e+00 1.10422800e-03 2.14531327e-03 3.12313602e-03 0.00000000e+00 1.28331614e-03 2.49196993e-03 3.62594317e-03 0.00000000e+00 1.86183323e-03 3.59705544e-03 5.20524959e-03 
        </DataArray>
      </PointData>
    </Piece>
    <Piece NumberOfPoints="16" NumberOfCells="9">
      <Points>
        <DataArray type="Float64" NumberOfComponents="3" format="ascii">
          3.04145932e-01 1.58011556e-01 0.00000000e+00 
3.04145932e-01 1.47477448e-01 0.00000000e+00 
3.04145932e-01 1.36943355e-01 0.00000000e+00 
3.04145932e-01 1.26409248e-01 0.00000000e+00 
4.04225111e-01 1.76711470e-01 0.00000000e+00 
4.03868526e-01 1.66184857e-01 0.00000000e+00 
4.03511941e-01 1.55658260e-01 0.00000000e+00 
4.03155357e-01 1.45131648e-01 0.00000000e+00 
5.03284335e-01 2.00228050e-01 0.00000000e+00 
5.02911150e-01 1.88103378e-01 0.00000000e+00 
5.02537966e-01 1.75978720e-01 0.00000000e+00 
5.02164781e-01 1.63854048e-01 0.00000000e+00 
6.01174176e-01 2.28220567e-01 0.00000000e+00 
6.01174176e-01 2.13005856e-01 0.00000000e+00 
6.01174176e-01 1.97791159e-01 0.00000000e+00 
6.01174176e-01 1.82576448e-01 0.00000000e+00 

        </DataArray>
      </Points>
      <Cells>
        <DataArray type="Int32" Name="connectivity" format="ascii">
0 1 5 4
4 5 9 8
8 9 13 12
1 2 6 5
5 6 10 9
9 10 14 13
2 3 7 6
6 7 11 10
10 11 15 14

        </DataArray>
        <DataArray type="Int32" Name="offsets" format="ascii">
4 8 12 16 20 24 28 32 36 
        </DataArray>
        <DataArray type="UInt8" Name="types" format="ascii">
9 9 9 9 9 9 9 9 9 
        </DataArray>
      </Cells>
      <PointData>
        <DataArray type="Float64" Name="u">
          0.00000000e+00 1.86183323e-03 3.59705544e-03 5.20524959e-03 0.00000000e+00 2.16644730e-03 4.19867035e-03 6.09670598e-03 0.00000000e+00 2.95649805e-03 5.72511329e-03 8.30614512e-03 0.00000000e+00 4.43283901e-03 8.55667276e-03 1.23722264e-02 
        </DataArray>
      </PointData>
    </Piece>
    <Piece NumberOfPoints="16" NumberOfCells="9">
      <Points>
        <DataArray type="Float64" NumberOfComponents="3" format="ascii">
          6.01174176e-01 2.28220567e-01 0.00000000e+00 
6.01174176e-01 2.13005856e-01 0.00000000e+00 
6.01174176e-01 1.97791159e-01 0.00000000e+00 
6.01174176e-01 1.82576448e-01 0.00000000e+00 
6.97795570e-01 2.60322720e-01 0.00000000e+00 
6.97354376e-01 2.43930131e-01 0.00000000e+00 
6.96913123e-01 2.27537557e-01 0.00000000e+00 
6.96471870e-01 2.11144969e-01 0.00000000e+00 
7.93096662e-01 2.96158075e-01 0.00000000e+00 
7.92654335e-01 2.77343214e-01 0.00000000e+00 
7.92211950e-01 2.58528352e-01 0.00000000e+00 
7.91769564e-01 2.39713505e-01 0.00000000e+00 
8.87067258e-01 3.35352540e-01 0.00000000e+00 
8.87067258e-01 3.12995702e-01 0.00000000e+00 
8.87067258e-01 2.90638864e-01 0.00000000e+00 
8.87067258e-01 2.68282026e-01 0.00000000e+00 

        </DataArray>
      </Points>
      <Cells>
        <DataArray type="Int32" Name="connectivity" format="ascii">
0 1 5 4
4 5 9 8
8 9 13 12
1 2 6 5
5 6 10 9
9 10 14 13
2 3 7 6
6 7 11 10
10 11 15 14

        </DataArray>
        <DataArray type="Int32" Name="offsets" format="ascii">
4 8 12 16 20 24 28 32 36 
        </DataArray>
        <DataArray type="UInt8" Name="types" format="ascii">
9 9 9 9 9 9 9 9 9 
        </DataArray>
      </Cells>
      <PointData>
        <DataArray type="Float64" Name="u">
          0.00000000e+00 4.43283901e-03 8.55667276e-03 1.23722264e-02 0.00000000e+00 5.58913914e-03 1.08016409e-02 1.56395270e-02 0.00000000e+00 7.46206162e-03 1.44138590e-02 2.08586069e-02 0.00000000e+00 1.02289405e-02 1.97271545e-02 2.85006004e-02 
        </DataArray>
      </PointData>
    </Piece>
    <Piece NumberOfPoints="16" NumberOfCells="9">
      <Points>
        <DataArray type="Float64" NumberOfComponents="3" format="ascii">
          8.87067258e-01 3.35352540e-01 0.00000000e+00 
8.87067258e-01 3.12995702e-01 0.00000000e+00 
8.87067258e-01 2.90638864e-01 0.00000000e+00 
8.87067258e-01 2.68282026e-01 0.00000000e+00 
9.79730546e-01 3.77547145e-01 0.00000000e+00 
9.79319870e-01 3.53057623e-01 0.00000000e+00 
9.78909254e-01 3.28568101e-01 0.00000000e+00 
9.78498578e-01 3.04078579e-01 0.00000000e+00 
1.07113779e+00 4.22399610e-01 0.00000000e+00 
1.07073510e+00 3.94891441e-01 0.00000000e+00 
1.07033253e+00 3.67383271e-01 0.00000000e+00 
1.06992996e+00 3.39875102e-01 0.00000000e+00 
1.16136122e+00 4.69589561e-01 0.00000000e+00 
1.16136122e+00 4.38283592e-01 0.00000000e+00 
1.16136122e+00 4.06977624e-01 0.00000000e+00 
1.16136122e+00 3.75671655e-01 0.00000000e+00 

        </DataArray>
      </Points>
      <Cells>
        <DataArray type="Int32" Name="connectivity" format="ascii">
0 1 5 4
4 5 9 8
8 9 13 12
1 2 6 5
5 6 10 9
9 10 14 13
2 3 7 6
6 7 11 10
10 11 15 14

        </DataArray>
        <DataArray type="Int32" Name="offsets" format="ascii">
4 8 12 16 20 24 28 32 36 
        </DataArray>
        <DataArray type="UInt8" Name="types" format="ascii">
9 9 9 9 9 9 9 9 9 
        </DataArray>
      </Cells>
      <PointData>
        <DataArray type="Float64" Name="u">
          0.00000000e+00 1.02289405e-02 1.97271545e-02 2.85006004e-02 0.00000000e+00 1.25191086e-02 2.41603755e-02 3.49304964e-02 0.00000000e+00 1.55832163e-02 3.00726063e-02 4.34755843e-02 0.00000000e+00 1.94989566e-02 3.76083534e-02 5.43376926e-02 
        </DataArray>
      </PointData>
    </Piece>
    <Piece NumberOfPoints="16" NumberOfCells="9">
      <Points>
        <DataArray type="Float64" NumberOfComponents="3" format="ascii">
          1.16136122e+00 4.69589561e-01 0.00000000e+00 
1.16136122e+00 4.38283592e-01 0.00000000e+00 
1.16136122e+00 4.06977624e-01 0.00000000e+00 
1.16136122e+00 3.75671655e-01 0.00000000e+00 
1.25048780e+00 5.18820941e-01 0.00000000e+00 
1.25016677e+00 4.84681517e-01 0.00000000e+00 
1.24984562e+00 4.50542122e-01 0.00000000e+00 
1.24952447e+00 4.16402727e-01 0.00000000e+00 
1.33861578e+00 5.69819391e-01 0.00000000e+00 
1.33830643e+00 5.32257557e-01 0.00000000e+00 
1.33799708e+00 4.94695663e-01 0.00000000e+00 
1.33768773e+00 4.57133770e-01 0.00000000e+00 
1.42585099e+00 6.22331083e-01 0.00000000e+00 
1.42585099e+00 5.80842316e-01 0.00000000e+00 
1.42585099e+00 5.39353609e-01 0.00000000e+00 
1.42585099e+00 4.97864842e-01 0.00000000e+00 

        </DataArray>
      </Points>
      <Cells>
        <DataArray type="Int32" Name="connectivity" format="ascii">
0 1 5 4
4 5 9 8
8 9 13 12
1 2 6 5
5 6 10 9
9 10 14 13
2 3 7 6
6 7 11 10
10 11 15 14

        </DataArray>
        <DataArray type="Int32" Name="offsets" format="ascii">
4 8 12 16 20 24 28 32 36 
        </DataArray>
        <DataArray type="UInt8" Name="types" format="ascii">
9 9 9 9 9 9 9 9 9 
        </DataArray>
      </Cells>
      <PointData>
        <DataArray type="Float64" Name="u">
          0.00000000e+00 1.94989566e-02 3.76083534e-02 5.43376926e-02 0.00000000e+00 2.28168009e-02 4.40358303e-02 6.36636823e-02 0.00000000e+00 2.67881585e-02 5.17154079e-02 7.47850881e-02 0.00000000e+00 3.14091555e-02 6.06375478e-02 8.76852003e-02 
        </DataArray>
      </PointData>
    </Piece>
    <Piece NumberOfPoints="16" NumberOfCells="9">
      <Points>
        <DataArray type="Float64" NumberOfComponents="3" format="ascii">
          1.42585099e+00 6.22331083e-01 0.00000000e+00 
1.42585099e+00 5.80842316e-01 0.00000000e+00 
1.42585099e+00 5.39353609e-01 0.00000000e+00 
1.42585099e+00 4.97864842e-01 0.00000000e+00 
1.51230419e+00 6.76120937e-01 0.00000000e+00 
1.51209426e+00 6.31310701e-01 0.00000000e+00 
1.51188433e+00 5.86500466e-01 0.00000000e+00 
1.51167440e+00 5.41690230e-01 0.00000000e+00 
1.59808922e+00 7.30970740e-01 0.00000000e+00 
1.59789205e+00 6.82485700e-01 0.00000000e+00 
1.59769487e+00 6.34000659e-01 0.00000000e+00 
1.59749770e+00 5.85515618e-01 0.00000000e+00 
1.68332112e+00 7.86676228e-01 0.00000000e+00 
1.68332112e+00 7.34231174e-01 0.00000000e+00 
1.68332112e+00 6.81786060e-01 0.00000000e+00 
1.68332112e+00 6.29341006e-01 0.00000000e+00 

        </DataArray>
      </Points>
      <Cells>
        <DataArray type="Int32" Name="connectivity" format="ascii">
0 1 5 4
4 5 9 8
8 9 13 12
1 2 6 5
5 6 10 9
9 10 14 13
2 3 7 6
6 7 11 10
10 11 15 14

        </DataArray>
        <DataArray type="Int32" Name="offsets" format="ascii">
4 8 12 16 20 24 28 32 36 
        </DataArray>
        <DataArray type="UInt8" Name="types" format="ascii">
9 9 9 9 9 9 9 9 9 
        </DataArray>
      </Cells>
      <PointData>
        <DataArray type="Float64" Name="u">
          0.00000000e+00 3.14091555e-02 6.06375478e-02 8.76852003e-02 0.00000000e+00 3.54646586e-02 6.85092318e-02 9.91255959e-02 0.00000000e+00 3.99660374e-02 7.72386191e-02 1.11800329e-01 0.00000000e+00 4.48632393e-02 8.67274260e-02 1.25566043e-01 
        </DataArray>
      </PointData>
    </Piece>
    <Piece NumberOfPoints="16" NumberOfCells="9">
      <Points>
        <DataArray type="Float64" NumberOfComponents="3" format="ascii">
          1.68332112e+00 7.86676228e-01 0.00000000e+00 
1.68332112e+00 7.34231174e-01 0.00000000e+00 
1.68332112e+00 6.81786060e-01 0.00000000e+00 
1.68332112e+00 6.29341006e-01 0.00000000e+00 
1.76811612e+00 8.43045115e-01 0.00000000e+00 
1.76802218e+00 7.86954165e-01 0.00000000e+00 
1.76792836e+00 7.30863273e-01 0.00000000e+00 
1.76783442e+00 6.74772322e-01 0.00000000e+00 
1.85259056e+00 8.99893403e-01 0.00000000e+00 
1.85250962e+00 8.39996815e-01 0.00000000e+00 
1.85242867e+00 7.80100226e-01 0.00000000e+00 
1.85234773e+00 7.20203578e-01 0.00000000e+00 
1.93686104e+00 9.57043648e-01 0.00000000e+00 
1.93686104e+00 8.93240690e-01 0.00000000e+00 
1.93686104e+00 8.29437792e-01 0.00000000e+00 
1.93686104e+00 7.65634894e-01 0.00000000e+00 

        </DataArray>
      </Points>
      <Cells>
        <DataArray type="Int32" Name="connectivity" format="ascii">
0 1 5 4
4 5 9 8
8 9 13 12
1 2 6 5
5 6 10 9
9 10 14 13
2 3 7 6
6 7 11 10
10 11 15 14

        </DataArray>
        <DataArray type="Int32" Name="offsets" format="ascii">
4 8 12 16 20 24 28 32 36 
        </DataArray>
        <DataArray type="UInt8" Name="types" format="ascii">
9 9 9 9 9 9 9 9 9 
        </DataArray>
      </Cells>
      <PointData>
        <DataArray type="Float64" Name="u">
          0.00000000e+00 4.48632393e-02 8.67274260e-02 1.25566043e-01 0.00000000e+00 4.93747312e-02 9.55010748e-02 1.38339398e-01 0.00000000e+00 5.40929472e-02 1.04677019e-01 1.51697557e-01 0.00000000e+00 5.89453514e-02 1.14112498e-01 1.65433275e-01 
        </DataArray>
      </PointData>
    </Piece>
    <Piece NumberOfPoints="16" NumberOfCells="9">
      <Points>
        <DataArray type="Float64" NumberOfComponents="3" format="ascii">
          1.93686104e+00 9.57043648e-01 0.00000000e+00 
1.93686104e+00 8.93240690e-01 0.00000000e+00 
1.93686104e+00 8.29437792e-01 0.00000000e+00 
1.93686104e+00 7.65634894e-01 0.00000000e+00 
2.02104425e+00 1.01432252e+00 0.00000000e+00 
2.02106690e+00 9.46674287e-01 0.00000000e+00 
2.02108955e+00 8.79026055e-01 0.00000000e+00 
2.02111220e+00 8.11377883e-01 0.00000000e+00 
2.10525632e+00 1.07155859e+00 0.00000000e+00 
2.10529208e+00 1.00007939e+00 0.00000000e+00 
2.10532761e+00 9.28600073e-01 0.00000000e+00 
2.10536313e+00 8.57120812e-01 0.00000000e+00 
2.18961430e+00 1.12857974e+00 0.00000000e+00 
2.18961430e+00 1.05334103e+00 0.00000000e+00 
2.18961430e+00 9.78102446e-01 0.00000000e+00 
2.18961430e+00 9.02863801e-01 0.00000000e+00 

        </DataArray>
      </Points>
      <Cells>
        <DataArray type="Int32" Name="connectivity" format="ascii">
0 1 5 4
4 5 9 8
8 9 13 12
1 2 6 5
5 6 10 9
9 10 14 13
2 3 7 6
6 7 11 10
10 11 15 14

        </DataArray>
        <DataArray type="Int32" Name="offsets" format="ascii">
4 8 12 16 20 24 28 32 36 
        </DataArray>
        <DataArray type="UInt8" Name="types" format="ascii">
9 9 9 9 9 9 9 9 9 
        </DataArray>
      </Cells>
      <PointData>
        <DataArray type="Float64" Name="u">
          0.00000000e+00 5.89453514e-02 1.14112498e-01 1.65433275e-01 0.00000000e+00 6.36951379e-02 1.23364700e-01 1.78921503e-01 0.00000000e+00 6.84071499e-02 1.32546746e-01 1.92315982e-01 0.00000000e+00 7.29884392e-02 1.41489222e-01 2.05378389e-01 
        </DataArray>
      </PointData>
    </Piece>
    <Piece NumberOfPoints="16" NumberOfCells="9">
      <Points>
        <DataArray type="Float64" NumberOfComponents="3" format="ascii">
          2.18961430e+00 1.12857974e+00 0.00000000e+00 
2.18961430e+00 1.05334103e+00 0.00000000e+00 
2.18961430e+00 9.78102446e-01 0.00000000e+00 
2.18961430e+00 9.02863801e-01 0.00000000e+00 
2.27423429e+00 1.18521082e+00 0.00000000e+00 
2.27437353e+00 1.10602796e+00 0.00000000e+00 
2.27451277e+00 1.02684510e+00 0.00000000e+00 
2.27465200e+00 9.47662234e-01 0.00000000e+00 
2.35923338e+00 1.24127150e+00 0.00000000e+00 
2.35938549e+00 1.15833449e+00 0.00000000e+00 
2.35953760e+00 1.07539761e+00 0.00000000e+00 
2.35968971e+00 9.92460668e-01 0.00000000e+00 
2.44472742e+00 1.29657388e+00 0.00000000e+00 
2.44472742e+00 1.21013558e+00 0.00000000e+00 
2.44472742e+00 1.12369740e+00 0.00000000e+00 
2.44472742e+00 1.03725910e+00 0.00000000e+00 

        </DataArray>
      </Points>
      <Cells>
        <DataArray type="Int32" Name="connectivity" format="ascii">
0 1 5 4
4 5 9 8
8 9 13 12
1 2 6 5
5 6 10 9
9 10 14 13
2 3 7 6
6 7 11 10
10 11 15 14

        </DataArray>
        <DataArray type="Int32" Name="offsets" format="ascii">
4 8 12 16 20 24 28 32 36 
        </DataArray>
        <DataArray type="UInt8" Name="types" format="ascii">
9 9 9 9 9 9 9 9 9 
        </DataArray>
      </Cells>
      <PointData>
        <DataArray type="Float64" Name="u">
          0.00000000e+00 7.29884392e-02 1.41489222e-01 2.05378389e-01 0.00000000e+00 7.78247341e-02 1.50911372e-01 2.19119212e-01 0.00000000e+00 8.23601425e-02 1.59765988e-01 2.32058127e-01 0.00000000e+00 8.65041824e-02 1.67878482e-01 2.43946227e-01 
        </DataArray>
      </PointData>
    </Piece>
    <Piece NumberOfPoints="16" NumberOfCells="9">
      <Points>
        <DataArray type="Float64" NumberOfComponents="3" format="ascii">
          2.44472742e+00 1.29657388e+00 0.00000000e+00 
2.44472742e+00 1.21013558e+00 0.00000000e+00 
2.44472742e+00 1.12369740e+00 0.00000000e+00 
2.44472742e+00 1.03725910e+00 0.00000000e+00 
2.53083205e+00 1.35091996e+00 0.00000000e+00 
2.53108644e+00 1.26052737e+00 0.00000000e+00 
2.53134084e+00 1.17013466e+00 0.00000000e+00 
2.53159499e+00 1.07974195e+00 0.00000000e+00 
2.61766219e+00 1.40409899e+00 0.00000000e+00 
2.61792898e+00 1.31014097e+00 0.00000000e+00 
2.61819577e+00 1.21618295e+00 0.00000000e+00 
2.61846256e+00 1.12222481e+00 0.00000000e+00 
2.70533013e+00 1.45588458e+00 0.00000000e+00 
2.70533013e+00 1.35882568e+00 0.00000000e+00 
2.70533013e+00 1.26176667e+00 0.00000000e+00 
2.70533013e+00 1.16470766e+00 0.00000000e+00 

        </DataArray>
      </Points>
      <Cells>
        <DataArray type="Int32" Name="connectivity" format="ascii">
0 1 5 4
4 5 9 8
8 9 13 12
1 2 6 5
5 6 10 9
9 10 14 13
2 3 7 6
6 7 11 10
10 11 15 14

        </DataArray>
        <DataArray type="Int32" Name="offsets" format="ascii">
4 8 12 16 20 24 28 32 36 
        </DataArray>
        <DataArray type="UInt8" Name="types" format="ascii">
9 9 9 9 9 9 9 9 9 
        </DataArray>
      </Cells>
      <PointData>
        <DataArray type="Float64" Name="u">
          0.00000000e+00 8.65041824e-02 1.67878482e-01 2.43946227e-01 0.00000000e+00 9.12974793e-02 1.77216703e-01 2.57559810e-01 0.00000000e+00 9.55125530e-02 1.85457811e-01 2.69618090e-01 0.00000000e+00 9.90585473e-02 1.92427452e-01 2.79871969e-01 
        </DataArray>
      </PointData>
    </Piece>
    <Piece NumberOfPoints="16" NumberOfCells="9">
      <Points>
        <DataArray type="Float64" NumberOfComponents="3" format="ascii">
          2.70533013e+00 1.45588458e+00 0.00000000e+00 
2.70533013e+00 1.35882568e+00 0.00000000e+00 
2.70533013e+00 1.26176667e+00 0.00000000e+00 
2.70533013e+00 1.16470766e+00 0.00000000e+00 
2.79394460e+00 1.50603259e+00 0.00000000e+00 
2.79430461e+00 1.40509796e+00 0.00000000e+00 
2.79466462e+00 1.30416334e+00 0.00000000e+00 
2.79502463e+00 1.20322871e+00 0.00000000e+00 
2.88360810e+00 1.55427873e+00 0.00000000e+00 
2.88397837e+00 1.45010233e+00 0.00000000e+00 
2.88434863e+00 1.34592605e+00 0.00000000e+00 
2.88471889e+00 1.24174976e+00 0.00000000e+00 
2.97441339e+00 1.60033846e+00 0.00000000e+00 
2.97441339e+00 1.49364924e+00 0.00000000e+00 
2.97441339e+00 1.38696003e+00 0.00000000e+00 
2.97441339e+00 1.28027081e+00 0.00000000e+00 

        </DataArray>
      </Points>
      <Cells>
        <DataArray type="Int32" Name="connectivity" format="ascii">
0 1 5 4
4 5 9 8
8 9 13 12
1 2 6 5
5 6 10 9
9 10 14 13
2 3 7 6
6 7 11 10
10 11 15 14

        </DataArray>
        <DataArray type="Int32" Name="offsets" format="ascii">
4 8 12 16 20 24 28 32 36 
        </DataArray>
        <DataArray type="UInt8" Name="types" format="ascii">
9 9 9 9 9 9 9 9 9 
        </DataArray>
      </Cells>
      <PointData>
        <DataArray type="Float64" Name="u">
          0.00000000e+00 9.90585473e-02 1.92427452e-01 2.79871969e-01 0.00000000e+00 1.03687131e-01 2.01435698e-01 2.92988619e-01 0.00000000e+00 1.07439615e-01 2.08775323e-01 3.03734961e-01 0.00000000e+00 1.10220759e-01 2.14274047e-01 3.11869997e-01 
        </DataArray>
      </PointData>
    </Piece>
    <Piece NumberOfPoints="16" NumberOfCells="9">
      <Points>
        <DataArray type="Float64" NumberOfComponents="3" format="ascii">
          2.97441339e+00 1.60033846e+00 0.00000000e+00 
2.97441339e+00 1.49364924e+00 0.00000000e+00 
2.97441339e+00 1.38696003e+00 0.00000000e+00 
2.97441339e+00 1.28027081e+00 0.00000000e+00 
3.06644082e+00 1.64390349e+00 0.00000000e+00 
3.06687307e+00 1.53352499e+00 0.00000000e+00 
3.06730556e+00 1.42314649e+00 0.00000000e+00 
3.06773806e+00 1.31276798e+00 0.00000000e+00 
3.15975285e+00 1.68464196e+00 0.00000000e+00 
3.16018963e+00 1.57151639e+00 0.00000000e+00 
3.16062617e+00 1.45839071e+00 0.00000000e+00 
3.16106296e+00 1.34526515e+00 0.00000000e+00 
3.25438786e+00 1.72220278e+00 0.00000000e+00 
3.25438786e+00 1.60738933e+00 0.00000000e+00 
3.25438786e+00 1.49257576e+00 0.00000000e+00 
3.25438786e+00 1.37776232e+00 0.00000000e+00 

        </DataArray>
      </Points>
      <Cells>
        <DataArray type="Int32" Name="connectivity" format="ascii">
0 1 5 4
4 5 9 8
8 9 13 12
1 2 6 5
5 6 10 9
9 10 14 13
2 3 7 6
6 7 11 10
10 11 15 14

        </DataArray>
        <DataArray type="Int32" Name="offsets" format="ascii">
4 8 12 16 20 24 28 32 36 
        </DataArray>
        <DataArray type="UInt8" Name="types" format="ascii">
9 9 9 9 9 9 9 9 9 
        </DataArray>
      </Cells>
      <PointData>
        <DataArray type="Float64" Name="u">
          0.00000000e+00 1.10220759e-01 2.14274047e-01 3.11869997e-01 0.00000000e+00 1.14538626e-01 2.22657043e-01 3.24046564e-01 0.00000000e+00 1.17650783e-01 2.28750648e-01 3.32974411e-01 0.00000000e+00 1.19480267e-01 2.32403360e-01 3.38437678e-01 
        </DataArray>
      </PointData>
    </Piece>
    <Piece NumberOfPoints="16" NumberOfCells="9">
      <Points>
        <DataArray type="Float64" NumberOfComponents="3" format="ascii">
          3.25438786e+00 1.72220278e+00 0.00000000e+00 
3.25438786e+00 1.60738933e+00 0.00000000e+00 
3.25438786e+00 1.49257576e+00 0.00000000e+00 
3.25438786e+00 1.37776232e+00 0.00000000e+00 
3.35035276e+00 1.75621891e+00 0.00000000e+00 
3.35077786e+00 1.63805866e+00 0.00000000e+00 
3.35120273e+00 1.51989830e+00 0.00000000e+00 
3.35162783e+00 1.40173805e+00 0.00000000e+00 
3.44761777e+00 1.78631270e+00 0.00000000e+00 
3.44803452e+00 1.66611314e+00 0.00000000e+00 
3.44845104e+00 1.54591346e+00 0.00000000e+00 
3.44886780e+00 1.42571390e+00 0.00000000e+00 
3.54610777e+00 1.81211209e+00 0.00000000e+00 
3.54610777e+00 1.69130456e+00 0.00000000e+00 
3.54610777e+00 1.57049716e+00 0.00000000e+00 
3.54610777e+00 1.44968963e+00 0.00000000e+00 

        </DataArray>
      </Points>
      <Cells>
        <DataArray type="Int32" Name="connectivity" format="ascii">
0 1 5 4
4 5 9 8
8 9 13 12
1 2 6 5
5 6 10 9
9 10 14 13
2 3 7 6
6 7 11 10
10 11 15 14

        </DataArray>
        <DataArray type="Int32" Name="offsets" format="ascii">
4 8 12 16 20 24 28 32 36 
        </DataArray>
        <DataArray type="UInt8" Name="types" format="ascii">
9 9 9 9 9 9 9 9 9 
        </DataArray>
      </Cells>
      <PointData>
        <DataArray type="Float64" Name="u">
          0.00000000e+00 1.19480267e-01 2.32403360e-01 3.38437678e-01 0.00000000e+00 1.23276695e-01 2.39752236e-01 3.49071793e-01 0.00000000e+00 1.25544447e-01 2.44193674e-01 3.55581081e-01 0.00000000e+00 1.26219115e-01 2.45606536e-01 3.57794155e-01 
        </DataArray>
      </PointData>
    </Piece>
    <Piece NumberOfPoints="16" NumberOfCells="9">
      <Points>
        <DataArray type="Float64" NumberOfComponents="3" format="ascii">
          3.54610777e+00 1.81211209e+00 0.00000000e+00 
3.54610777e+00 1.69130456e+00 0.00000000e+00 
3.54610777e+00 1.57049716e+00 0.00000000e+00 
3.54610777e+00 1.44968963e+00 0.00000000e+00 
3.64569879e+00 1.83326018e+00 0.00000000e+00 
3.64598274e+00 1.70969403e+00 0.00000000e+00 
3.64626670e+00 1.58612788e+00 0.00000000e+00 
3.64655042e+00 1.46256161e+00 0.00000000e+00 
3.74621606e+00 1.84943831e+00 0.00000000e+00 
3.74647498e+00 1.72477007e+00 0.00000000e+00 
3.74673414e+00 1.60010183e+00 0.00000000e+00 
3.74699330e+00 1.47543371e+00 0.00000000e+00 
3.84743595e+00 1.86038208e+00 0.00000000e+00 
3.84743595e+00 1.73635662e+00 0.00000000e+00 
3.84743595e+00 1.61233115e+00 0.00000000e+00 
3.84743595e+00 1.48830569e+00 0.00000000e+00 

        </DataArray>
      </Points>
      <Cells>
        <DataArray type="Int32" Name="connectivity" format="ascii">
0 1 5 4
4 5 9 8
8 9 13 12
1 2 6 5
5 6 10 9
9 10 14 13
2 3 7 6
6 7 11 10
10 11 15 14

        </DataArray>
        <DataArray type="Int32" Name="offsets" format="ascii">
4 8 12 16 20 24 28 32 36 
        </DataArray>
        <DataArray type="UInt8" Name="types" format="ascii">
9 9 9 9 9 9 9 9 9 
        </DataArray>
      </Cells>
      <PointData>
        <DataArray type="Float64" Name="u">
          0.00000000e+00 1.26219115e-01 2.45606536e-01 3.57794155e-01 0.00000000e+00 1.29220790e-01 2.51383036e-01 3.66099132e-01 0.00000000e+00 1.30428654e-01 2.53749459e-01 3.69567962e-01 0.00000000e+00 1.29807296e-01 2.52636884e-01 3.68102860e-01 
        </DataArray>
      </PointData>
    </Piece>
    <Piece NumberOfPoints="16" NumberOfCells="9">
      <Points>
        <DataArray type="Float64" NumberOfComponents="3" format="ascii">
          3.84743595e+00 1.86038208e+00 0.00000000e+00 
3.84743595e+00 1.73635662e+00 0.00000000e+00 
3.84743595e+00 1.61233115e+00 0.00000000e+00 
3.84743595e+00 1.48830569e+00 0.00000000e+00 
3.94909549e+00 1.86590338e+00 0.00000000e+00 
3.94911218e+00 1.74003744e+00 0.00000000e+00 
3.94912863e+00 1.61417150e+00 0.00000000e+00 
3.94914532e+00 1.48830569e+00 0.00000000e+00 
4.05090475e+00 1.86590338e+00 0.00000000e+00 
4.05088806e+00 1.74003744e+00 0.00000000e+00 
4.05087137e+00 1.61417150e+00 0.00000000e+00 
4.05085468e+00 1.48830569e+00 0.00000000e+00 
4.15256405e+00 1.86038208e+00 0.00000000e+00 
4.15256405e+00 1.73635662e+00 0.00000000e+00 
4.15256405e+00 1.61233115e+00 0.00000000e+00 
4.15256405e+00 1.48830569e+00 0.00000000e+00 

        </DataArray>
      </Points>
      <Cells>
        <DataArray type="Int32" Name="connectivity" format="ascii">
0 1 5 4
4 5 9 8
8 9 13 12
1 2 6 5
5 6 10 9
9 10 14 13
2 3 7 6
6 7 11 10
10 11 15 14

        </DataArray>
        <DataArray type="Int32" Name="offsets" format="ascii">
4 8 12 16 20 24 28 32 36 
        </DataArray>
        <DataArray type="UInt8" Name="types" format="ascii">
9 9 9 9 9 9 9 9 9 
        </DataArray>
      </Cells>
      <PointData>
        <DataArray type="Float64" Name="u">
          0.00000000e+00 1.29807296e-01 2.52636884e-01 3.68102860e-01 0.00000000e+00 1.31716821e-01 2.56268247e-01 3.73252286e-01 0.00000000e+00 1.31716823e-01 2.56268235e-01 3.73252241e-01 0.00000000e+00 1.29807380e-01 2.52637018e-01 3.68102980e-01 
        </DataArray>
      </PointData>
    </Piece>
    <Piece NumberOfPoints="16" NumberOfCells="9">
      <Points>
        <DataArray type="Float64" NumberOfComponents="3" format="ascii">
          4.15256405e+00 1.86038208e+00 0.00000000e+00 
4.15256405e+00 1.73635662e+00 0.00000000e+00 
4.15256405e+00 1.61233115e+00 0.00000000e+00 
4.15256405e+00 1.48830569e+00 0.00000000e+00 
4.25378418e+00 1.84943831e+00 0.00000000e+00 
4.25352478e+00 1.72477007e+00 0.00000000e+00 
4.25326586e+00 1.60010183e+00 0.00000000e+00 
4.25300694e+00 1.47543371e+00 0.00000000e+00 
4.35430098e+00 1.83326018e+00 0.00000000e+00 
4.35401726e+00 1.70969403e+00 0.00000000e+00 
4.35373354e+00 1.58612788e+00 0.00000000e+00 
4.35344934e+00 1.46256161e+00 0.00000000e+00 
4.45389223e+00 1.81211209e+00 0.00000000e+00 
4.45389223e+00 1.69130456e+00 0.00000000e+00 
4.45389223e+00 1.57049716e+00 0.00000000e+00 
4.45389223e+00 1.44968963e+00 0.00000000e+00 

        </DataArray>
      </Points>
      <Cells>
        <DataArray type="Int32" Name="connectivity" format="ascii">
0 1 5 4
4 5 9 8
8 9 13 12
1 2 6 5
5 6 10 9
9 10 14 13
2 3 7 6
6 7 11 10
10 11 15 14

        </DataArray>
        <DataArray type="Int32" Name="offsets" format="ascii">
4 8 12 16 20 24 28 32 36 
        </DataArray>
        <DataArray type="UInt8" Name="types" format="ascii">
9 9 9 9 9 9 9 9 9 
        </DataArray>
      </Cells>
      <PointData>
        <DataArray type="Float64" Name="u">
          0.00000000e+00 1.29807380e-01 2.52637018e-01 3.68102980e-01 0.00000000e+00 1.30428636e-01 2.53749330e-01 3.69567737e-01 0.00000000e+00 1.29220798e-01 2.51383015e-01 3.66099120e-01 0.00000000e+00 1.26218854e-01 2.45606177e-01 3.57793793e-01 
        </DataArray>
      </PointData>
    </Piece>
    <Piece NumberOfPoints="16" NumberOfCells="9">
      <Points>
        <DataArray type="Float64" NumberOfComponents="3" format="ascii">
          4.45389223e+00 1.81211209e+00 0.00000000e+00 
4.45389223e+00 1.69130456e+00 0.00000000e+00 
4.45389223e+00 1.57049716e+00 0.00000000e+00 
4.45389223e+00 1.44968963e+00 0.00000000e+00 
4.55238199e+00 1.78631270e+00 0.00000000e+00 
4.55196571e+00 1.66611314e+00 0.00000000e+00 
4.55154896e+00 1.54591346e+00 0.00000000e+00 
4.55113220e+00 1.42571390e+00 0.00000000e+00 
4.64964724e+00 1.75621891e+00 0.00000000e+00 
4.64922237e+00 1.63805866e+00 0.00000000e+00 
4.64879704e+00 1.51989830e+00 0.00000000e+00 
4.64837217e+00 1.40173805e+00 0.00000000e+00 
4.74561214e+00 1.72220278e+00 0.00000000e+00 
4.74561214e+00 1.60738933e+00 0.00000000e+00 
4.74561214e+00 1.49257576e+00 0.00000000e+00 
4.74561214e+00 1.37776232e+00 0.00000000e+00 

        </DataArray>
      </Points>
      <Cells>
        <DataArray type="Int32" Name="connectivity" format="ascii">
0 1 5 4
4 5 9 8
8 9 13 12
1 2 6 5
5 6 10 9
9 10 14 13
2 3 7 6
6 7 11 10
10 11 15 14

        </DataArray>
        <DataArray type="Int32" Name="offsets" format="ascii">
4 8 12 16 20 24 28 32 36 
        </DataArray>
        <DataArray type="UInt8" Name="types" format="ascii">
9 9 9 9 9 9 9 9 9 
        </DataArray>
      </Cells>
      <PointData>
        <DataArray type="Float64" Name="u">
          0.00000000e+00 1.26218854e-01 2.45606177e-01 3.57793793e-01 0.00000000e+00 1.25544287e-01 2.44193386e-01 3.55580814e-01 0.00000000e+00 1.23276403e-01 2.39751901e-01 3.49071519e-01 0.00000000e+00 1.19480142e-01 2.32403202e-01 3.38437569e-01 
        </DataArray>
      </PointData>
    </Piece>
    <Piece NumberOfPoints="16" NumberOfCells="9">
      <Points>
        <DataArray type="Float64" NumberOfComponents="3" format="ascii">
          4.74561214e+00 1.72220278e+00 0.00000000e+00 
4.74561214e+00 1.60738933e+00 0.00000000e+00 
4.74561214e+00 1.49257576e+00 0.00000000e+00 
4.74561214e+00 1.37776232e+00 0.00000000e+00 
4.84024715e+00 1.68464196e+00 0.00000000e+00 
4.83981037e+00 1.57151628e+00 0.00000000e+00 
4.83937359e+00 1.45839071e+00 0.00000000e+00 
4.83893681e+00 1.34526503e+00 0.00000000e+00 
4.93355942e+00 1.64390349e+00 0.00000000e+00 
4.93312693e+00 1.53352499e+00 0.00000000e+00 
4.93269444e+00 1.42314649e+00 0.00000000e+00 
4.93226194e+00 1.31276798e+00 0.00000000e+00 
5.02558661e+00 1.60033846e+00 0.00000000e+00 
5.02558661e+00 1.49364924e+00 0.00000000e+00 
5.02558661e+00 1.38696003e+00 0.00000000e+00 
5.02558661e+00 1.28027081e+00 0.00000000e+00 

        </DataArray>
      </Points>
      <Cells>